 Gaussian 16, Revision A.03,
 Gaussian 16:  ES64L-G16RevA.03 25-Dec-2016

 ---------------
 # ccsd/def2tzvp
 ---------------

 -
 N
 -
 Symbolic Z-matrix:
 Charge =  0 Multiplicity = 4

                         Standard orientation:
 ---------------------------------------------------------------------
 Center     Atomic      Atomic             Coordinates (Angstroms)
 Number     Number       Type             X           Y           Z
 ---------------------------------------------------------------------
      1          7           0        0.000000    0.000000    0.000000
 ---------------------------------------------------------------------

 SCF Done:  E(UHF) =  -54.4027468846     A.U. after    8 cycles
 E2 =    -0.9486676671D-01 EUMP2 =    -0.54497613651298D+02

 The electronic state is 4-A1G.
 Alpha  occ. eigenvalues --  -15.67057  -1.16239  -0.57060  -0.57060  -0.57060
 Alpha virt. eigenvalues --    0.34123   0.44675   0.44675   0.44675   1.19019
 Alpha virt. eigenvalues --    1.19019   1.19019   1.19019   1.19019   2.07298
 Alpha virt. eigenvalues --    2.28668   2.28668   2.28668   4.18204   4.18204

  Beta  occ. eigenvalues --  -15.57963  -0.72539
  Beta virt. eigenvalues --    0.12942   0.12942   0.12942   0.39924   0.60347
  Beta virt. eigenvalues --    0.60347   0.60347   1.33503   1.33503   1.33503
  Beta virt. eigenvalues --    1.33503   1.33503   2.19683   2.45678   2.45678

 Mulliken charges and spin densities:
               1          2
     1  N    0.000000   3.000000
 Sum of Mulliken charges =   0.00000   3.00000

 Dipole moment (field-independent basis, Debye):
    X=              0.0000    Y=              0.0000    Z=              0.0000  Tot=              0.0000
 Quadrupole moment (field-independent basis, Debye-Ang):
   XX=             -5.4022   YY=             -5.4022   ZZ=             -5.4022
   XY=             -0.0000   XZ=             -0.0000   YZ=              0.0000

 Normal termination of Gaussian 16 at Tue Feb  1 19:56:55 2022.
