 Gaussian 16, Revision A.03,
 Gaussian 16:  ES64L-G16RevA.03 25-Dec-2016

 ---------------
 # ccsd/def2tzvp
 ---------------

 -
 H
 -
 Symbolic Z-matrix:
 Charge =  0 Multiplicity = 2

                         Standard orientation:
 ---------------------------------------------------------------------
 Center     Atomic      Atomic             Coordinates (Angstroms)
 Number     Number       Type             X           Y           Z
 ---------------------------------------------------------------------
      1          1           0        0.000000    0.000000    0.000000
 ---------------------------------------------------------------------

 SCF Done:  E(UHF) = -0.499809832232     A.U. after    5 cycles
 E2 =     0.0000000000D+00 EUMP2 =    -0.49980983223189D+00

 The electronic state is 2-A1G.
 Alpha  occ. eigenvalues --   -0.49981
 Alpha virt. eigenvalues --    0.35064   1.59500   1.59500   1.59500   2.48242
  Beta virt. eigenvalues --    0.05644   0.49433   1.72758   1.72758   1.72758
  Beta virt. eigenvalues --    2.61379

 Mulliken charges and spin densities:
               1          2
     1  H    0.000000   1.000000
 Sum of Mulliken charges =   0.00000   1.00000

 Dipole moment (field-independent basis, Debye):
    X=              0.0000    Y=              0.0000    Z=              0.0000  Tot=              0.0000
 Quadrupole moment (field-independent basis, Debye-Ang):
   XX=             -1.3408   YY=             -1.3408   ZZ=             -1.3408
   XY=              0.0000   XZ=              0.0000   YZ=              0.0000

 Normal termination of Gaussian 16 at Wed Feb  2 16:18:54 2022.
