 Gaussian 16, Revision A.03,
 Gaussian 16:  ES64L-G16RevA.03 25-Dec-2016

 ---------------
 # ccsd/def2tzvp
 ---------------

 -
 F
 -
 Symbolic Z-matrix:
 Charge =  0 Multiplicity = 2

                         Standard orientation:
 ---------------------------------------------------------------------
 Center     Atomic      Atomic             Coordinates (Angstroms)
 Number     Number       Type             X           Y           Z
 ---------------------------------------------------------------------
      1          9           0        0.000000    0.000000    0.000000
 ---------------------------------------------------------------------

 SCF Done:  E(UHF) =  -99.4117985004     A.U. after    9 cycles
 E2 =    -0.1977909405D+00 EUMP2 =    -0.99609589440918D+02

 Unable to determine electronic state:  an orbital has unidentified symmetry.
 Alpha  occ. eigenvalues --  -26.40536  -1.67050  -0.84345  -0.73016  -0.73016
 Alpha virt. eigenvalues --    0.62451   0.63968   0.67807   0.67807   2.14907
 Alpha virt. eigenvalues --    2.16678   2.16678   2.22275   2.22275   3.44931
 Alpha virt. eigenvalues --    3.53086   3.53086   3.77570   7.25242   7.26335

  Beta  occ. eigenvalues --  -26.35689  -1.47562  -0.67867  -0.67867
  Beta virt. eigenvalues --    0.05829   0.64951   0.68986   0.68986   0.78200
  Beta virt. eigenvalues --    2.22968   2.22968   2.26103   2.26103   2.27284
  Beta virt. eigenvalues --    3.55713   3.55713   3.63747   3.83263   7.33527

 Mulliken charges and spin densities:
               1          2
     1  F    0.000000   1.000000
 Sum of Mulliken charges =   0.00000   1.00000

 Dipole moment (field-independent basis, Debye):
    X=              0.0000    Y=              0.0000    Z=              0.0000  Tot=              0.0000
 Quadrupole moment (field-independent basis, Debye-Ang):
   XX=             -4.8774   YY=             -4.8774   ZZ=             -3.9640
   XY=              0.0000   XZ=              0.0000   YZ=             -0.0000

 Normal termination of Gaussian 16 at Wed Feb 16 14:28:42 2022.
