 Gaussian 16, Revision A.03,
 Gaussian 16:  ES64L-G16RevA.03 25-Dec-2016

 ---------------
 # ccsd/def2tzvp
 ---------------

 -
 N
 -
 Symbolic Z-matrix:
 Charge =  0 Multiplicity = 2

                         Standard orientation:
 ---------------------------------------------------------------------
 Center     Atomic      Atomic             Coordinates (Angstroms)
 Number     Number       Type             X           Y           Z
 ---------------------------------------------------------------------
      1          7           0        0.000000    0.000000    0.000000
 ---------------------------------------------------------------------

 SCF Done:  E(UHF) =  -54.2661030726     A.U. after   10 cycles
 E2 =    -0.1100094097D+00 EUMP2 =    -0.54376112482298D+02

 Unable to determine electronic state:  an orbital has unidentified symmetry.
 Alpha  occ. eigenvalues --  -15.69278  -1.04436  -0.56505  -0.47668
 Alpha virt. eigenvalues --    0.01073   0.35206   0.44585   0.48005   0.51100
 Alpha virt. eigenvalues --    1.20289   1.20528   1.22513   1.24649   1.24994
 Alpha virt. eigenvalues --    2.09116   2.27637   2.33396   2.33937   4.14909

  Beta  occ. eigenvalues --  -15.66076  -0.89540  -0.43860
  Beta virt. eigenvalues --    0.03313   0.09651   0.37054   0.49112   0.52487
  Beta virt. eigenvalues --    0.57208   1.24867   1.25074   1.27507   1.29463
  Beta virt. eigenvalues --    1.29987   2.13321   2.35053   2.35985   2.41457

 Mulliken charges and spin densities:
               1          2
     1  N   -0.000000   1.000000
 Sum of Mulliken charges =  -0.00000   1.00000

 Dipole moment (field-independent basis, Debye):
    X=              0.0000    Y=              0.0000    Z=              0.0000  Tot=              0.0000
 Quadrupole moment (field-independent basis, Debye-Ang):
   XX=             -5.5331   YY=             -7.2181   ZZ=             -4.1698
   XY=              0.0000   XZ=              0.0000   YZ=             -0.0000

 Normal termination of Gaussian 16 at Tue Feb  1 19:22:58 2022.
