 Gaussian 16, Revision A.03,
 Gaussian 16:  ES64L-G16RevA.03 25-Dec-2016

 ---------------
 # ccsd/def2tzvp
 ---------------

 -
 O
 -
 Symbolic Z-matrix:
 Charge =  0 Multiplicity = 1

                         Standard orientation:
 ---------------------------------------------------------------------
 Center     Atomic      Atomic             Coordinates (Angstroms)
 Number     Number       Type             X           Y           Z
 ---------------------------------------------------------------------
      1          8           0        0.000000    0.000000    0.000000
 ---------------------------------------------------------------------

 SCF Done:  E(RHF) =  -74.6880466494     A.U. after    7 cycles
 E2 =    -0.1630525852D+00 EUMP2 =    -0.74851099234649D+02

 Unable to determine electronic state:  an orbital has unidentified symmetry.
 Alpha  occ. eigenvalues --  -20.70438  -1.26097  -0.58502  -0.58502
 Alpha virt. eigenvalues --   -0.01303   0.48772   0.56554   0.56554   0.60063
 Alpha virt. eigenvalues --    1.67405   1.68097   1.68097   1.70458   1.70458
 Alpha virt. eigenvalues --    2.86548   2.86795   2.86795   2.89334   5.43341

 Mulliken charges:
               1
     1  O    0.000000
 Sum of Mulliken charges =   0.00000

 Dipole moment (field-independent basis, Debye):
    X=              0.0000    Y=              0.0000    Z=              0.0000  Tot=              0.0000
 Quadrupole moment (field-independent basis, Debye-Ang):
   XX=             -5.8395   YY=             -5.8395   ZZ=             -3.6552
   XY=             -0.0000   XZ=              0.0000   YZ=             -0.0000

 Normal termination of Gaussian 16 at Tue Feb  1 19:58:40 2022.
