 Gaussian 16, Revision A.03,
 Gaussian 16:  ES64L-G16RevA.03 25-Dec-2016

 ------------------------
 # hf/def2tzvp stable=opt
 ------------------------

 -
 B
 -
 Symbolic Z-matrix:
 Charge =  0 Multiplicity = 2

                         Standard orientation:
 ---------------------------------------------------------------------
 Center     Atomic      Atomic             Coordinates (Angstroms)
 Number     Number       Type             X           Y           Z
 ---------------------------------------------------------------------
      1          5           0        0.000000    0.000000    0.000000
 ---------------------------------------------------------------------

 SCF Done:  E(UHF) =  -24.5323327659     A.U. after   10 cycles

 Unable to determine electronic state:  an orbital has unidentified symmetry.
 Alpha  occ. eigenvalues --   -7.70105  -0.54497  -0.31861
 Alpha virt. eigenvalues --    0.04186   0.04186   0.15614   0.21923   0.26874
 Alpha virt. eigenvalues --    0.26874   0.53525   0.53862   0.53862   0.55318
 Alpha virt. eigenvalues --    0.55318   0.90553   1.08762   1.12490   1.12490

  Beta  occ. eigenvalues --   -7.68564  -0.44590
  Beta virt. eigenvalues --    0.05153   0.05153   0.08923   0.16808   0.27851
  Beta virt. eigenvalues --    0.27851   0.31732   0.55529   0.55529   0.58455
  Beta virt. eigenvalues --    0.58455   0.59515   0.93240   1.13512   1.13512

 Mulliken charges and spin densities:
               1          2
     1  B   -0.000000   1.000000
 Sum of Mulliken charges =  -0.00000   1.00000

 Dipole moment (field-independent basis, Debye):
    X=              0.0000    Y=              0.0000    Z=              0.0000  Tot=              0.0000
 Quadrupole moment (field-independent basis, Debye-Ang):
   XX=             -9.2640   YY=             -5.9640   ZZ=             -5.9640
   XY=             -0.0000   XZ=              0.0000   YZ=             -0.0000

 Normal termination of Gaussian 16 at Tue Feb  1 20:47:26 2022.
