 Gaussian 16, Revision A.03,
 Gaussian 16:  ES64L-G16RevA.03 25-Dec-2016

 ---------------
 # ccsd/def2tzvp
 ---------------

 -
 C
 -
 Symbolic Z-matrix:
 Charge =  0 Multiplicity = 1

                         Standard orientation:
 ---------------------------------------------------------------------
 Center     Atomic      Atomic             Coordinates (Angstroms)
 Number     Number       Type             X           Y           Z
 ---------------------------------------------------------------------
      1          6           0        0.000000    0.000000    0.000000
 ---------------------------------------------------------------------

 SCF Done:  E(RHF) =  -37.6032179020     A.U. after    8 cycles
 E2 =    -0.8412994842D-01 EUMP2 =    -0.37687347850414D+02

 Unable to determine electronic state:  an orbital has unidentified symmetry.
 Alpha  occ. eigenvalues --  -11.36323  -0.72399  -0.35719
 Alpha virt. eigenvalues --    0.03383   0.03383   0.24979   0.35484   0.38316
 Alpha virt. eigenvalues --    0.38316   0.85031   0.85031   0.86619   0.86619
 Alpha virt. eigenvalues --    0.87224   1.44883   1.68192   1.68192   1.68849

 Mulliken charges:
               1
     1  C    0.000000
 Sum of Mulliken charges =   0.00000

 Dipole moment (field-independent basis, Debye):
    X=              0.0000    Y=              0.0000    Z=              0.0000  Tot=              0.0000
 Quadrupole moment (field-independent basis, Debye-Ang):
   XX=             -5.0094   YY=             -9.4678   ZZ=             -5.0094
   XY=              0.0000   XZ=              0.0000   YZ=             -0.0000

 Normal termination of Gaussian 16 at Tue Feb  1 19:22:44 2022.
