 Gaussian 16, Revision A.03,
 Gaussian 16:  ES64L-G16RevA.03 25-Dec-2016

 ------------------------
 # hf/def2tzvp stable=opt
 ------------------------

 -
 O
 -
 Symbolic Z-matrix:
 Charge =  0 Multiplicity = 3

                         Standard orientation:
 ---------------------------------------------------------------------
 Center     Atomic      Atomic             Coordinates (Angstroms)
 Number     Number       Type             X           Y           Z
 ---------------------------------------------------------------------
      1          8           0        0.000000    0.000000    0.000000
 ---------------------------------------------------------------------

 SCF Done:  E(UHF) =  -74.8156250913     A.U. after   10 cycles

 Unable to determine electronic state:  an orbital has unidentified symmetry.
 Alpha  occ. eigenvalues --  -20.70600  -1.41625  -0.70926  -0.70926  -0.61002
 Alpha virt. eigenvalues --    0.47186   0.52632   0.52632   0.56178   1.60973
 Alpha virt. eigenvalues --    1.60973   1.65890   1.65890   1.67616   2.79261
 Alpha virt. eigenvalues --    2.79261   2.86022   2.86382   5.40675   5.40675

  Beta  occ. eigenvalues --  -20.62670  -1.07450  -0.52089
  Beta virt. eigenvalues --    0.09994   0.09994   0.51597   0.58466   0.67526
  Beta virt. eigenvalues --    0.67526   1.73863   1.74627   1.74627   1.77347
  Beta virt. eigenvalues --    1.77347   2.91058   2.95869   2.97679   2.97679

 Mulliken charges and spin densities:
               1          2
     1  O    0.000000   2.000000
 Sum of Mulliken charges =   0.00000   2.00000

 Dipole moment (field-independent basis, Debye):
    X=              0.0000    Y=              0.0000    Z=              0.0000  Tot=              0.0000
 Quadrupole moment (field-independent basis, Debye-Ang):
   XX=             -5.8438   YY=             -4.5766   ZZ=             -4.5766
   XY=             -0.0000   XZ=              0.0000   YZ=              0.0000

 Normal termination of Gaussian 16 at Tue Feb  1 20:48:55 2022.
