 Gaussian 16, Revision A.03,
 Gaussian 16:  ES64L-G16RevA.03 25-Dec-2016

 ---------------
 # ccsd/def2tzvp
 ---------------

 -
 C
 -
 Symbolic Z-matrix:
 Charge =  0 Multiplicity = 3

                         Standard orientation:
 ---------------------------------------------------------------------
 Center     Atomic      Atomic             Coordinates (Angstroms)
 Number     Number       Type             X           Y           Z
 ---------------------------------------------------------------------
      1          6           0        0.000000    0.000000    0.000000
 ---------------------------------------------------------------------

 SCF Done:  E(UHF) =  -37.6924788288     A.U. after    9 cycles
 E2 =    -0.6611025495D-01 EUMP2 =    -0.37758589083788D+02

 Unable to determine electronic state:  an orbital has unidentified symmetry.
 Alpha  occ. eigenvalues --  -11.34538  -0.82880  -0.43883  -0.43883
 Alpha virt. eigenvalues --    0.03012   0.24071   0.32525   0.32525   0.38232
 Alpha virt. eigenvalues --    0.81965   0.81965   0.83835   0.83835   0.84592
 Alpha virt. eigenvalues --    1.43228   1.64223   1.64223   1.68995   2.93307

  Beta  occ. eigenvalues --  -11.29956  -0.58309
  Beta virt. eigenvalues --    0.06122   0.11016   0.11016   0.27201   0.40673
  Beta virt. eigenvalues --    0.45134   0.45134   0.88849   0.89935   0.89935
  Beta virt. eigenvalues --    0.93496   0.93496   1.50050   1.71644   1.77012

 Mulliken charges and spin densities:
               1          2
     1  C    0.000000   2.000000
 Sum of Mulliken charges =   0.00000   2.00000

 Dipole moment (field-independent basis, Debye):
    X=              0.0000    Y=              0.0000    Z=              0.0000  Tot=              0.0000
 Quadrupole moment (field-independent basis, Debye-Ang):
   XX=             -6.8176   YY=             -4.8371   ZZ=             -6.8176
   XY=             -0.0000   XZ=              0.0000   YZ=              0.0000

 Normal termination of Gaussian 16 at Tue Feb  1 19:33:10 2022.
